 VARIABLES="AR""G"
 ZONE T="Exp."
  0.63975583039999995       0.71299999999999997     
  0.72960917729999997       0.64800000000000002     
  0.85160940039999999       0.59099999999999997     
   1.0226018391000000       0.52500000000000002     
   1.2795116607000001       0.43500000000000000     
   1.9098593171000000       0.31500000000000000     
   3.0557749074000000       0.25300000000000000     
 ZONE T="AVG"
  0.63975583039999995       0.69910876494933150     
  0.72960917729999997       0.64268498196015067     
  0.85160940039999999       0.58165818452854967     
   1.0226018391000000       0.51598467476593157     
   1.2795116607000001       0.44395538354520242     
   1.9098593171000000       0.33495398831937512     
   3.0557749074000000       0.23468926555593392     
 ZONE T="Wendt"
  0.63975583039999995       0.59047113318902189     
  0.72960917729999997       0.54660919076067582     
  0.85160940039999999       0.49652960756576076     
   1.0226018391000000       0.44002574416202000     
   1.2795116607000001       0.37577670355032633     
   1.9098593171000000       0.27666209719158336     
   3.0557749074000000       0.18699818484615927     
 ZONE T="Prandtl"
  0.63975583039999995       0.73374081364268673     
  0.72960917729999997       0.70958751412010657     
  0.85160940039999999       0.67922927676978029     
   1.0226018391000000       0.64080441084837658     
   1.2795116607000001       0.59060518487405556     
   1.9098593171000000       0.49538779623586782     
   3.0557749074000000       0.38310578025948422     
